<?xml version="1.0" encoding="UTF-8"?>

<!-- generated on 2026-03-14T22:42:44.482865+01:00 by Eclipse SUMO GUI 1.26.0
<sumoConfiguration xmlns:xsi="http://www.w3.org/2001/XMLSchema-instance" xsi:noNamespaceSchemaLocation="http://sumo.dlr.de/xsd/sumoConfiguration.xsd">

    <input>
        <net-file value="C:\Users\breje\Desktop\projektKoncowy\simulation\network/osm.net.xml"/>
        <route-files value="C:\Users\breje\Desktop\projektKoncowy\simulation\demand/netedit_cfg.rou.xml,C:\Users\breje\Desktop\projektKoncowy\simulation\             demand/osm_pt.rou.xml,C:\Users\breje\Desktop\projektKoncowy\simulation\             demand/cars_ev.rou.xml,C:\Users\breje\Desktop\projektKoncowy\simulation\             demand/cars.rou.xml,C:\Users\breje\Desktop\projektKoncowy\simulation\             demand/emergency.rou.xml,C:\Users\breje\Desktop\projektKoncowy\simulation\             demand/bus.rou.xml,C:\Users\breje\Desktop\projektKoncowy\simulation\             demand/truck.rou.xml,C:\Users\breje\Desktop\projektKoncowy\simulation\             demand/tram_gdansk.rou.xml"/>
        <additional-files value="C:\Users\breje\Desktop\projektKoncowy\simulation\osm.add.xml"/>
    </input>

    <output>
        <summary-output value="C:\Users\breje\Desktop\projektKoncowy\simulation\results/stats.xml"/>
        <tripinfo-output value="C:\Users\breje\Desktop\projektKoncowy\simulation\results/tripinfos.xml"/>
        <stop-output value="C:\Users\breje\Desktop\projektKoncowy\simulation\results/stopinfos.xml"/>
    </output>

    <processing>
        <lateral-resolution value="0.4"/>
        <time-to-teleport value="-1"/>
    </processing>

</sumoConfiguration>
-->

<tripinfos xmlns:xsi="http://www.w3.org/2001/XMLSchema-instance" xsi:noNamespaceSchemaLocation="http://sumo.dlr.de/xsd/tripinfo_file.xsd">
    <tripinfo id="car_4" depart="6.00" departLane="1362017841_0" departPos="5.10" departPosLat="0.00" departSpeed="0.00" departDelay="0.00" arrival="66.00" arrivalLane="1147624737#1_0" arrivalPos="232.89" arrivalPosLat="0.00" arrivalSpeed="13.10" duration="60.00" routeLength="723.42" waitingTime="0.00" waitingCount="0" stopTime="0.00" timeLoss="7.84" rerouteNo="0" devices="tripinfo_car_4" vType="car" speedFactor="1.02" vaporized=""/>
    <tripinfo id="car_20" depart="30.00" departLane="187938713#0_0" departPos="5.10" departPosLat="0.00" departSpeed="0.00" departDelay="0.00" arrival="97.00" arrivalLane="1362020490_0" arrivalPos="77.99" arrivalPosLat="0.00" arrivalSpeed="12.62" duration="67.00" routeLength="529.27" waitingTime="19.00" waitingCount="1" stopTime="0.00" timeLoss="26.65" rerouteNo="0" devices="tripinfo_car_20" vType="car" speedFactor="0.96" vaporized=""/>
    <tripinfo id="car_11" depart="17.00" departLane="277203721_0" departPos="5.10" departPosLat="0.00" departSpeed="0.00" departDelay="0.50" arrival="100.00" arrivalLane="200568452#0_0" arrivalPos="720.04" arrivalPosLat="0.00" arrivalSpeed="11.02" duration="83.00" routeLength="924.06" waitingTime="0.00" waitingCount="0" stopTime="0.00" timeLoss="6.81" rerouteNo="0" devices="tripinfo_car_11" vType="car" speedFactor="0.88" vaporized=""/>
    <tripinfo id="car_35" depart="53.00" departLane="1232799371#2_0" departPos="5.10" departPosLat="0.00" departSpeed="0.00" departDelay="0.50" arrival="103.00" arrivalLane="236809165_0" arrivalPos="92.40" arrivalPosLat="0.00" arrivalSpeed="13.00" duration="50.00" routeLength="631.50" waitingTime="0.00" waitingCount="0" stopTime="0.00" timeLoss="4.94" rerouteNo="0" devices="tripinfo_car_35" vType="car" speedFactor="1.02" vaporized=""/>
    <tripinfo id="car_42" depart="63.00" departLane="-1348067248_0" departPos="5.10" departPosLat="0.00" departSpeed="0.00" departDelay="0.00" arrival="116.00" arrivalLane="1362020490_0" arrivalPos="77.99" arrivalPosLat="0.00" arrivalSpeed="13.22" duration="53.00" routeLength="361.63" waitingTime="16.00" waitingCount="1" stopTime="0.00" timeLoss="24.43" rerouteNo="0" devices="tripinfo_car_42" vType="car" speedFactor="1.01" vaporized=""/>
    <tripinfo id="car_71" depart="113.00" departLane="961539471_0" departPos="5.10" departPosLat="0.00" departSpeed="0.00" departDelay="6.50" arrival="118.00" arrivalLane="961539472_0" arrivalPos="10.88" arrivalPosLat="0.00" arrivalSpeed="10.49" duration="5.00" routeLength="28.58" waitingTime="0.00" waitingCount="0" stopTime="0.00" timeLoss="3.15" rerouteNo="0" devices="tripinfo_car_71" vType="car" speedFactor="1.15" vaporized=""/>
    <tripinfo id="car_ev_11" depart="44.00" departLane="277203721_0" departPos="4.90" departPosLat="0.00" departSpeed="0.00" departDelay="0.00" arrival="122.00" arrivalLane="200568452#0_0" arrivalPos="720.04" arrivalPosLat="0.00" arrivalSpeed="11.96" duration="78.00" routeLength="924.26" waitingTime="0.00" waitingCount="0" stopTime="0.00" timeLoss="5.67" rerouteNo="0" devices="tripinfo_car_ev_11" vType="car_ev" speedFactor="0.93" vaporized=""/>
    <tripinfo id="car_16" depart="24.00" departLane="29114711#0.184_0" departPos="5.10" departPosLat="0.00" departSpeed="0.00" departDelay="0.00" arrival="136.00" arrivalLane="1362020490_1" arrivalPos="77.99" arrivalPosLat="0.00" arrivalSpeed="13.40" duration="112.00" routeLength="1439.26" waitingTime="0.00" waitingCount="0" stopTime="0.00" timeLoss="10.09" rerouteNo="0" devices="tripinfo_car_16" vType="car" speedFactor="1.02" vaporized=""/>
    <tripinfo id="car_6" depart="11.00" departLane="961539471_0" departPos="5.10" departPosLat="0.00" departSpeed="0.00" departDelay="2.00" arrival="144.00" arrivalLane="236809165_0" arrivalPos="92.40" arrivalPosLat="0.00" arrivalSpeed="13.94" duration="133.00" routeLength="1194.06" waitingTime="34.00" waitingCount="2" stopTime="0.00" timeLoss="52.77" rerouteNo="0" devices="tripinfo_car_6" vType="car" speedFactor="1.08" vaporized=""/>
    <tripinfo id="car_ev_4" depart="16.00" departLane="1362017841_0" departPos="4.90" departPosLat="0.00" departSpeed="0.00" departDelay="0.00" arrival="145.00" arrivalLane="1147624737#1_0" arrivalPos="232.89" arrivalPosLat="0.00" arrivalSpeed="12.27" duration="129.00" routeLength="723.62" waitingTime="61.00" waitingCount="1" stopTime="0.00" timeLoss="71.73" rerouteNo="0" devices="tripinfo_car_ev_4" vType="car_ev" speedFactor="0.94" vaporized=""/>
    <tripinfo id="bus_3" depart="45.00" departLane="1362017841_0" departPos="12.10" departPosLat="0.00" departSpeed="0.00" departDelay="0.00" arrival="146.00" arrivalLane="1147624737#1_0" arrivalPos="232.89" arrivalPosLat="0.00" arrivalSpeed="13.49" duration="101.00" routeLength="720.15" waitingTime="29.00" waitingCount="1" stopTime="0.00" timeLoss="48.67" rerouteNo="0" devices="tripinfo_bus_3" vType="bus" speedFactor="1.00" vaporized=""/>
    <tripinfo id="car_ev_6" depart="29.00" departLane="961539471_0" departPos="4.90" departPosLat="0.00" departSpeed="0.00" departDelay="5.00" arrival="149.00" arrivalLane="236809165_0" arrivalPos="92.40" arrivalPosLat="0.00" arrivalSpeed="14.85" duration="120.00" routeLength="1194.26" waitingTime="20.00" waitingCount="2" stopTime="0.00" timeLoss="40.12" rerouteNo="0" devices="tripinfo_car_ev_6" vType="car_ev" speedFactor="1.09" vaporized=""/>
    <tripinfo id="car_3" depart="5.00" departLane="961539471_0" departPos="5.10" departPosLat="0.00" departSpeed="0.00" departDelay="0.50" arrival="150.00" arrivalLane="-407552210#1_0" arrivalPos="26.49" arrivalPosLat="0.00" arrivalSpeed="5.19" duration="145.00" routeLength="777.91" waitingTime="76.00" waitingCount="2" stopTime="0.00" timeLoss="91.89" rerouteNo="0" devices="tripinfo_car_3" vType="car" speedFactor="1.14" vaporized=""/>
    <tripinfo id="car_49" depart="74.00" departLane="277203721_0" departPos="5.10" departPosLat="0.00" departSpeed="0.00" departDelay="0.50" arrival="151.00" arrivalLane="200568452#0_0" arrivalPos="720.04" arrivalPosLat="0.00" arrivalSpeed="13.06" duration="77.00" routeLength="924.06" waitingTime="0.00" waitingCount="0" stopTime="0.00" timeLoss="6.76" rerouteNo="0" devices="tripinfo_car_49" vType="car" speedFactor="0.95" vaporized=""/>
    <tripinfo id="car_53" depart="80.00" departLane="277203721_0" departPos="5.10" departPosLat="0.00" departSpeed="0.00" departDelay="0.50" arrival="152.00" arrivalLane="200568452#0_1" arrivalPos="720.04" arrivalPosLat="0.00" arrivalSpeed="14.28" duration="72.00" routeLength="924.06" waitingTime="0.00" waitingCount="0" stopTime="0.00" timeLoss="7.00" rerouteNo="0" devices="tripinfo_car_53" vType="car" speedFactor="1.03" vaporized=""/>
    <tripinfo id="car_34" depart="53.00" departLane="961539471_0" departPos="5.10" departPosLat="0.00" departSpeed="0.00" departDelay="2.00" arrival="156.00" arrivalLane="430532793.85.34.10_1" arrivalPos="14.89" arrivalPosLat="0.00" arrivalSpeed="12.44" duration="103.00" routeLength="742.47" waitingTime="30.00" waitingCount="1" stopTime="0.00" timeLoss="48.80" rerouteNo="0" devices="tripinfo_car_34" vType="car" speedFactor="1.01" vaporized=""/>
    <tripinfo id="car_62" depart="93.00" departLane="277203721_0" departPos="5.10" departPosLat="0.00" departSpeed="0.00" departDelay="0.00" arrival="156.00" arrivalLane="200568452#0_0" arrivalPos="720.04" arrivalPosLat="0.00" arrivalSpeed="15.80" duration="63.00" routeLength="924.06" waitingTime="0.00" waitingCount="0" stopTime="0.00" timeLoss="5.89" rerouteNo="0" devices="tripinfo_car_62" vType="car" speedFactor="1.18" vaporized=""/>
    <tripinfo id="car_10" depart="20.00" departLane="961539471_0" departPos="5.10" departPosLat="0.00" departSpeed="0.00" departDelay="5.00" arrival="159.00" arrivalLane="236809165_0" arrivalPos="92.40" arrivalPosLat="0.00" arrivalSpeed="12.98" duration="139.00" routeLength="1194.06" waitingTime="24.00" waitingCount="2" stopTime="0.00" timeLoss="45.58" rerouteNo="0" devices="tripinfo_car_10" vType="car" speedFactor="0.94" vaporized=""/>
    <tripinfo id="car_21" depart="34.00" departLane="961539471_0" departPos="5.10" departPosLat="0.00" departSpeed="0.00" departDelay="2.50" arrival="161.00" arrivalLane="236809165_0" arrivalPos="92.40" arrivalPosLat="0.00" arrivalSpeed="12.60" duration="127.00" routeLength="1194.06" waitingTime="16.00" waitingCount="2" stopTime="0.00" timeLoss="37.75" rerouteNo="0" devices="tripinfo_car_21" vType="car" speedFactor="0.98" vaporized=""/>
    <tripinfo id="car_23" depart="37.00" departLane="961539471_0" departPos="5.10" departPosLat="0.00" departSpeed="0.00" departDelay="2.50" arrival="162.00" arrivalLane="236809165_0" arrivalPos="92.40" arrivalPosLat="0.00" arrivalSpeed="13.23" duration="125.00" routeLength="1194.06" waitingTime="13.00" waitingCount="2" stopTime="0.00" timeLoss="36.20" rerouteNo="0" devices="tripinfo_car_23" vType="car" speedFactor="0.98" vaporized=""/>
    <tripinfo id="car_ev_3" depart="14.00" departLane="961539471_0" departPos="4.90" departPosLat="0.00" departSpeed="0.00" departDelay="2.00" arrival="163.00" arrivalLane="-407552210#1_0" arrivalPos="26.49" arrivalPosLat="0.00" arrivalSpeed="4.89" duration="149.00" routeLength="778.11" waitingTime="67.00" waitingCount="1" stopTime="0.00" timeLoss="80.89" rerouteNo="0" devices="tripinfo_car_ev_3" vType="car_ev" speedFactor="0.89" vaporized=""/>
    <tripinfo id="car_ev_10" depart="40.00" departLane="961539471_0" departPos="4.90" departPosLat="0.00" departSpeed="0.00" departDelay="0.00" arrival="163.00" arrivalLane="236809165_1" arrivalPos="92.40" arrivalPosLat="0.00" arrivalSpeed="12.82" duration="123.00" routeLength="1194.26" waitingTime="10.00" waitingCount="2" stopTime="0.00" timeLoss="34.94" rerouteNo="0" devices="tripinfo_car_ev_10" vType="car_ev" speedFactor="0.99" vaporized=""/>
    <tripinfo id="car_89" depart="134.00" departLane="407552210#0_0" departPos="5.10" departPosLat="0.00" departSpeed="0.00" departDelay="0.50" arrival="163.00" arrivalLane="430532795_1" arrivalPos="303.61" arrivalPosLat="0.00" arrivalSpeed="14.53" duration="29.00" routeLength="335.03" waitingTime="0.00" waitingCount="0" stopTime="0.00" timeLoss="4.68" rerouteNo="0" devices="tripinfo_car_89" vType="car" speedFactor="1.13" vaporized=""/>
    <tripinfo id="car_31" depart="47.00" departLane="161297934_0" departPos="5.10" departPosLat="0.00" departSpeed="0.00" departDelay="0.50" arrival="164.00" arrivalLane="-1316855122#3_0" arrivalPos="353.66" arrivalPosLat="0.00" arrivalSpeed="7.56" duration="117.00" routeLength="980.06" waitingTime="0.00" waitingCount="0" stopTime="0.00" timeLoss="12.78" rerouteNo="0" devices="tripinfo_car_31" vType="car" speedFactor="0.98" vaporized=""/>
    <tripinfo id="car_29" depart="44.00" departLane="29114711#0.184_0" departPos="5.10" departPosLat="0.00" departSpeed="0.00" departDelay="0.50" arrival="165.00" arrivalLane="1147624737#1_0" arrivalPos="232.89" arrivalPosLat="0.00" arrivalSpeed="12.76" duration="121.00" routeLength="1471.02" waitingTime="0.00" waitingCount="0" stopTime="0.00" timeLoss="10.79" rerouteNo="0" devices="tripinfo_car_29" vType="car" speedFactor="0.97" vaporized=""/>
    <tripinfo id="car_58" depart="87.00" departLane="961539471_0" departPos="5.10" departPosLat="0.00" departSpeed="0.00" departDelay="0.00" arrival="169.00" arrivalLane="-407552210#1_0" arrivalPos="26.49" arrivalPosLat="0.00" arrivalSpeed="5.69" duration="82.00" routeLength="777.91" waitingTime="0.00" waitingCount="0" stopTime="0.00" timeLoss="26.66" rerouteNo="0" devices="tripinfo_car_58" vType="car" speedFactor="1.10" vaporized=""/>
    <tripinfo id="car_64" depart="97.00" departLane="961539471_0" departPos="5.10" departPosLat="0.00" departSpeed="0.00" departDelay="1.00" arrival="175.00" arrivalLane="-407552210#1_0" arrivalPos="26.49" arrivalPosLat="0.00" arrivalSpeed="5.30" duration="78.00" routeLength="777.91" waitingTime="1.00" waitingCount="1" stopTime="0.00" timeLoss="16.66" rerouteNo="0" devices="tripinfo_car_64" vType="car" speedFactor="0.99" vaporized=""/>
    <tripinfo id="car_ev_16" depart="65.00" departLane="29114711#0.184_0" departPos="4.90" departPosLat="0.00" departSpeed="0.00" departDelay="1.00" arrival="176.00" arrivalLane="1362020490_1" arrivalPos="77.99" arrivalPosLat="0.00" arrivalSpeed="13.47" duration="111.00" routeLength="1439.46" waitingTime="0.00" waitingCount="0" stopTime="0.00" timeLoss="8.76" rerouteNo="0" devices="tripinfo_car_ev_16" vType="car_ev" speedFactor="1.02" vaporized=""/>
    <tripinfo id="car_46" depart="71.00" departLane="961539471_0" departPos="5.10" departPosLat="0.00" departSpeed="0.00" departDelay="2.00" arrival="182.00" arrivalLane="430532795_0" arrivalPos="303.61" arrivalPosLat="0.00" arrivalSpeed="14.15" duration="111.00" routeLength="1060.28" waitingTime="14.00" waitingCount="1" stopTime="0.00" timeLoss="38.14" rerouteNo="0" devices="tripinfo_car_46" vType="car" speedFactor="1.06" vaporized=""/>
    <tripinfo id="car_39" depart="60.00" departLane="961539471_0" departPos="5.10" departPosLat="0.00" departSpeed="0.00" departDelay="1.50" arrival="184.00" arrivalLane="430532795_0" arrivalPos="303.61" arrivalPosLat="0.00" arrivalSpeed="12.00" duration="124.00" routeLength="1060.28" waitingTime="22.00" waitingCount="1" stopTime="0.00" timeLoss="39.81" rerouteNo="0" devices="tripinfo_car_39" vType="car" speedFactor="0.92" vaporized=""/>
    <tripinfo id="car_68" depart="103.00" departLane="961539471_0" departPos="5.10" departPosLat="0.00" departSpeed="0.00" departDelay="1.00" arrival="189.00" arrivalLane="430532795_0" arrivalPos="303.61" arrivalPosLat="0.00" arrivalSpeed="14.19" duration="86.00" routeLength="1060.28" waitingTime="0.00" waitingCount="0" stopTime="0.00" timeLoss="11.22" rerouteNo="0" devices="tripinfo_car_68" vType="car" speedFactor="1.03" vaporized=""/>
    <tripinfo id="car_79" depart="119.00" departLane="277203721_0" departPos="5.10" departPosLat="0.00" departSpeed="0.00" departDelay="0.50" arrival="190.00" arrivalLane="200568452#0_0" arrivalPos="720.04" arrivalPosLat="0.00" arrivalSpeed="14.25" duration="71.00" routeLength="924.06" waitingTime="0.00" waitingCount="0" stopTime="0.00" timeLoss="6.15" rerouteNo="0" devices="tripinfo_car_79" vType="car" speedFactor="1.04" vaporized=""/>
    <tripinfo id="car_ev_35" depart="140.00" departLane="1232799371#2_0" departPos="4.90" departPosLat="0.00" departSpeed="0.00" departDelay="0.00" arrival="196.00" arrivalLane="236809165_0" arrivalPos="92.40" arrivalPosLat="0.00" arrivalSpeed="12.43" duration="56.00" routeLength="631.70" waitingTime="0.00" waitingCount="0" stopTime="0.00" timeLoss="4.79" rerouteNo="0" devices="tripinfo_car_ev_35" vType="car_ev" speedFactor="0.90" vaporized=""/>
    <tripinfo id="car_ev_42" depart="168.00" departLane="-1348067248_0" departPos="4.90" departPosLat="0.00" departSpeed="0.00" departDelay="0.00" arrival="207.00" arrivalLane="1362020490_0" arrivalPos="77.99" arrivalPosLat="0.00" arrivalSpeed="13.85" duration="39.00" routeLength="361.83" waitingTime="2.00" waitingCount="1" stopTime="0.00" timeLoss="10.40" rerouteNo="0" devices="tripinfo_car_ev_42" vType="car_ev" speedFactor="1.00" vaporized=""/>
    <tripinfo id="bus_9" depart="135.00" departLane="277203721_0" departPos="12.10" departPosLat="0.00" departSpeed="0.00" departDelay="0.00" arrival="209.00" arrivalLane="200568452#0_0" arrivalPos="720.04" arrivalPosLat="0.00" arrivalSpeed="13.87" duration="74.00" routeLength="917.06" waitingTime="0.00" waitingCount="0" stopTime="0.00" timeLoss="7.95" rerouteNo="0" devices="tripinfo_bus_9" vType="bus" speedFactor="1.00" vaporized=""/>
    <tripinfo id="car_47" depart="71.00" departLane="161297934_0" departPos="5.10" departPosLat="0.00" departSpeed="0.00" departDelay="0.50" arrival="210.00" arrivalLane="236809165_1" arrivalPos="92.40" arrivalPosLat="-1.00" arrivalSpeed="12.03" duration="139.00" routeLength="1492.95" waitingTime="12.00" waitingCount="1" stopTime="0.00" timeLoss="26.05" rerouteNo="0" devices="tripinfo_car_47" vType="car" speedFactor="0.96" vaporized=""/>
    <tripinfo id="car_9" depart="14.00" departLane="161297934_0" departPos="5.10" departPosLat="0.00" departSpeed="0.00" departDelay="0.50" arrival="212.00" arrivalLane="-407552210#1_0" arrivalPos="26.49" arrivalPosLat="0.00" arrivalSpeed="4.44" duration="198.00" routeLength="1157.30" waitingTime="81.00" waitingCount="3" stopTime="0.00" timeLoss="109.00" rerouteNo="0" devices="tripinfo_car_9" vType="car" speedFactor="0.99" vaporized=""/>
    <tripinfo id="car_56" depart="84.00" departLane="161297934_0" departPos="5.10" departPosLat="0.00" departSpeed="0.00" departDelay="0.00" arrival="212.00" arrivalLane="236809165_0" arrivalPos="92.40" arrivalPosLat="0.00" arrivalSpeed="12.78" duration="128.00" routeLength="1498.02" waitingTime="0.00" waitingCount="0" stopTime="0.00" timeLoss="10.74" rerouteNo="0" devices="tripinfo_car_56" vType="car" speedFactor="0.93" vaporized=""/>
    <tripinfo id="car_40" depart="60.00" departLane="200568455#0_0" departPos="5.10" departPosLat="0.00" departSpeed="0.00" departDelay="0.00" arrival="216.00" arrivalLane="236809165_0" arrivalPos="92.40" arrivalPosLat="0.00" arrivalSpeed="13.97" duration="156.00" routeLength="1739.31" waitingTime="26.00" waitingCount="1" stopTime="0.00" timeLoss="40.32" rerouteNo="0" devices="tripinfo_car_40" vType="car" speedFactor="1.09" vaporized=""/>
    <tripinfo id="car_19" depart="30.00" departLane="200568455#0_0" departPos="5.10" departPosLat="0.00" departSpeed="0.00" departDelay="1.50" arrival="218.00" arrivalLane="236809165_0" arrivalPos="92.40" arrivalPosLat="0.00" arrivalSpeed="14.10" duration="188.00" routeLength="1739.31" waitingTime="53.00" waitingCount="1" stopTime="0.00" timeLoss="69.08" rerouteNo="0" devices="tripinfo_car_19" vType="car" speedFactor="1.06" vaporized=""/>
    <tripinfo id="car_24" depart="36.00" departLane="200568455#0_0" departPos="5.10" departPosLat="0.00" departSpeed="0.00" departDelay="0.00" arrival="218.00" arrivalLane="-1316855122#3_0" arrivalPos="353.66" arrivalPosLat="0.00" arrivalSpeed="7.77" duration="182.00" routeLength="1290.85" waitingTime="46.00" waitingCount="1" stopTime="0.00" timeLoss="62.53" rerouteNo="0" devices="tripinfo_car_24" vType="car" speedFactor="1.01" vaporized=""/>
    <tripinfo id="car_ev_24" depart="96.00" departLane="200568455#0_0" departPos="4.90" departPosLat="0.00" departSpeed="0.00" departDelay="0.00" arrival="220.00" arrivalLane="-1316855122#3_0" arrivalPos="353.66" arrivalPosLat="0.00" arrivalSpeed="9.29" duration="124.00" routeLength="1291.05" waitingTime="0.00" waitingCount="0" stopTime="0.00" timeLoss="17.39" rerouteNo="0" devices="tripinfo_car_ev_24" vType="car_ev" speedFactor="1.13" vaporized=""/>
    <tripinfo id="car_ev_13" depart="53.00" departLane="200568455#0_0" departPos="4.90" departPosLat="0.00" departSpeed="0.00" departDelay="1.00" arrival="221.00" arrivalLane="1232799371#4_1" arrivalPos="128.83" arrivalPosLat="0.00" arrivalSpeed="12.14" duration="168.00" routeLength="1625.91" waitingTime="28.00" waitingCount="1" stopTime="0.00" timeLoss="43.58" rerouteNo="0" devices="tripinfo_car_ev_13" vType="car_ev" speedFactor="0.94" vaporized=""/>
    <tripinfo id="car_13" depart="20.00" departLane="200568455#0_0" departPos="5.10" departPosLat="0.00" departSpeed="0.00" departDelay="0.50" arrival="221.00" arrivalLane="1232799371#4_0" arrivalPos="128.83" arrivalPosLat="0.00" arrivalSpeed="12.42" duration="201.00" routeLength="1625.71" waitingTime="58.00" waitingCount="1" stopTime="0.00" timeLoss="72.55" rerouteNo="0" devices="tripinfo_car_13" vType="car" speedFactor="0.91" vaporized=""/>
    <tripinfo id="car_36" depart="56.00" departLane="200568455#0_0" departPos="5.10" departPosLat="0.00" departSpeed="0.00" departDelay="2.00" arrival="224.00" arrivalLane="236809165_0" arrivalPos="92.40" arrivalPosLat="0.00" arrivalSpeed="13.81" duration="168.00" routeLength="1739.31" waitingTime="28.00" waitingCount="1" stopTime="0.00" timeLoss="43.98" rerouteNo="0" devices="tripinfo_car_36" vType="car" speedFactor="1.02" vaporized=""/>
    <tripinfo id="car_45" depart="68.00" departLane="200568455#0_0" departPos="5.10" departPosLat="0.00" departSpeed="0.00" departDelay="0.50" arrival="226.00" arrivalLane="-407552210#1_0" arrivalPos="26.49" arrivalPosLat="0.00" arrivalSpeed="5.69" duration="158.00" routeLength="1351.21" waitingTime="35.00" waitingCount="2" stopTime="0.00" timeLoss="64.91" rerouteNo="0" devices="tripinfo_car_45" vType="car" speedFactor="1.10" vaporized=""/>
    <tripinfo id="car_59" depart="89.00" departLane="200568455#0_0" departPos="5.10" departPosLat="0.00" departSpeed="0.00" departDelay="0.50" arrival="226.00" arrivalLane="236809165_1" arrivalPos="92.40" arrivalPosLat="0.00" arrivalSpeed="12.91" duration="137.00" routeLength="1739.31" waitingTime="0.00" waitingCount="0" stopTime="0.00" timeLoss="12.19" rerouteNo="0" devices="tripinfo_car_59" vType="car" speedFactor="1.01" vaporized=""/>
    <tripinfo id="car_145" depart="218.00" departLane="430532793.85.34_0" departPos="5.10" departPosLat="0.00" departSpeed="0.00" departDelay="0.50" arrival="231.00" arrivalLane="-407552210#1_0" arrivalPos="26.49" arrivalPosLat="0.00" arrivalSpeed="3.79" duration="13.00" routeLength="56.10" waitingTime="0.00" waitingCount="0" stopTime="0.00" timeLoss="3.99" rerouteNo="0" devices="tripinfo_car_145" vType="car" speedFactor="0.88" vaporized=""/>
    <tripinfo id="car_ev_31" depart="124.00" departLane="161297934_0" departPos="4.90" departPosLat="0.00" departSpeed="0.00" departDelay="0.00" arrival="235.00" arrivalLane="-1316855122#3_0" arrivalPos="353.66" arrivalPosLat="0.00" arrivalSpeed="8.04" duration="111.00" routeLength="980.26" waitingTime="0.00" waitingCount="0" stopTime="0.00" timeLoss="11.71" rerouteNo="0" devices="tripinfo_car_ev_31" vType="car_ev" speedFactor="1.02" vaporized=""/>
    <tripinfo id="car_ev_19" depart="78.00" departLane="200568455#0_0" departPos="4.90" departPosLat="0.00" departSpeed="0.00" departDelay="2.00" arrival="236.00" arrivalLane="236809165_0" arrivalPos="92.40" arrivalPosLat="0.00" arrivalSpeed="11.76" duration="158.00" routeLength="1739.51" waitingTime="0.00" waitingCount="0" stopTime="0.00" timeLoss="16.32" rerouteNo="0" devices="tripinfo_car_ev_19" vType="car_ev" speedFactor="0.89" vaporized=""/>
    <tripinfo id="car_ev_29" depart="117.00" departLane="29114711#0.184_0" departPos="4.90" departPosLat="0.00" departSpeed="0.00" departDelay="1.00" arrival="236.00" arrivalLane="1147624737#1_1" arrivalPos="232.89" arrivalPosLat="0.00" arrivalSpeed="16.19" duration="119.00" routeLength="1471.22" waitingTime="11.00" waitingCount="1" stopTime="0.00" timeLoss="28.14" rerouteNo="0" devices="tripinfo_car_ev_29" vType="car_ev" speedFactor="1.17" vaporized=""/>
    <tripinfo id="car_41" depart="62.00" departLane="29114711#0.184_0" departPos="5.10" departPosLat="0.00" departSpeed="0.00" departDelay="0.50" arrival="239.00" arrivalLane="1147624737#1_0" arrivalPos="232.89" arrivalPosLat="0.00" arrivalSpeed="14.63" duration="177.00" routeLength="1471.02" waitingTime="59.00" waitingCount="1" stopTime="0.00" timeLoss="75.25" rerouteNo="0" devices="tripinfo_car_41" vType="car" speedFactor="1.06" vaporized=""/>
    <tripinfo id="car_18" depart="27.00" departLane="200568455#0_0" departPos="5.10" departPosLat="0.00" departSpeed="0.00" departDelay="0.00" arrival="240.00" arrivalLane="430532795_0" arrivalPos="303.61" arrivalPosLat="0.00" arrivalSpeed="12.74" duration="213.00" routeLength="1633.58" waitingTime="68.00" waitingCount="1" stopTime="0.00" timeLoss="87.18" rerouteNo="0" devices="tripinfo_car_18" vType="car" speedFactor="0.94" vaporized=""/>
    <tripinfo id="car_26" depart="42.00" departLane="200568455#0_0" departPos="5.10" departPosLat="0.00" departSpeed="0.00" departDelay="3.00" arrival="240.00" arrivalLane="430532795_1" arrivalPos="303.61" arrivalPosLat="0.00" arrivalSpeed="13.28" duration="198.00" routeLength="1633.58" waitingTime="58.00" waitingCount="2" stopTime="0.00" timeLoss="83.67" rerouteNo="0" devices="tripinfo_car_26" vType="car" speedFactor="1.03" vaporized=""/>
    <tripinfo id="car_119" depart="179.00" departLane="277203721_0" departPos="5.10" departPosLat="0.00" departSpeed="0.00" departDelay="0.50" arrival="243.00" arrivalLane="200568452#0_0" arrivalPos="720.04" arrivalPosLat="0.00" arrivalSpeed="15.50" duration="64.00" routeLength="924.06" waitingTime="0.00" waitingCount="0" stopTime="0.00" timeLoss="5.48" rerouteNo="0" devices="tripinfo_car_119" vType="car" speedFactor="1.14" vaporized=""/>
    <tripinfo id="car_ev_18" depart="72.00" departLane="200568455#0_0" departPos="4.90" departPosLat="0.00" departSpeed="0.00" departDelay="0.00" arrival="245.00" arrivalLane="430532795_0" arrivalPos="303.61" arrivalPosLat="0.00" arrivalSpeed="12.88" duration="173.00" routeLength="1633.78" waitingTime="31.00" waitingCount="1" stopTime="0.00" timeLoss="51.38" rerouteNo="0" devices="tripinfo_car_ev_18" vType="car_ev" speedFactor="0.97" vaporized=""/>
    <tripinfo id="truck_3" depart="121.00" departLane="1362017841_0" departPos="12.10" departPosLat="0.00" departSpeed="0.00" departDelay="1.00" arrival="245.00" arrivalLane="1147624737#1_0" arrivalPos="232.89" arrivalPosLat="0.00" arrivalSpeed="12.95" duration="124.00" routeLength="720.15" waitingTime="51.00" waitingCount="1" stopTime="0.00" timeLoss="69.07" rerouteNo="0" devices="tripinfo_truck_3" vType="truck" speedFactor="0.96" vaporized=""/>
    <tripinfo id="car_ev_26" depart="104.00" departLane="200568455#0_0" departPos="4.90" departPosLat="0.00" departSpeed="0.00" departDelay="0.00" arrival="248.00" arrivalLane="430532795_1" arrivalPos="303.61" arrivalPosLat="0.00" arrivalSpeed="15.42" duration="144.00" routeLength="1634.56" waitingTime="7.00" waitingCount="1" stopTime="0.00" timeLoss="43.25" rerouteNo="0" devices="tripinfo_car_ev_26" vType="car_ev" speedFactor="1.18" vaporized=""/>
    <tripinfo id="car_50" depart="75.00" departLane="200568455#0_0" departPos="5.10" departPosLat="0.00" departSpeed="0.00" departDelay="0.00" arrival="253.00" arrivalLane="430532795_0" arrivalPos="303.61" arrivalPosLat="0.00" arrivalSpeed="12.07" duration="178.00" routeLength="1633.58" waitingTime="24.00" waitingCount="1" stopTime="0.00" timeLoss="45.24" rerouteNo="0" devices="tripinfo_car_50" vType="car" speedFactor="0.89" vaporized=""/>
    <tripinfo id="car_57" depart="86.00" departLane="200568455#0_0" departPos="5.10" departPosLat="0.00" departSpeed="0.00" departDelay="0.50" arrival="259.00" arrivalLane="430532795_0" arrivalPos="303.61" arrivalPosLat="0.00" arrivalSpeed="11.11" duration="173.00" routeLength="1633.58" waitingTime="12.00" waitingCount="1" stopTime="0.00" timeLoss="36.28" rerouteNo="0" devices="tripinfo_car_57" vType="car" speedFactor="0.87" vaporized=""/>
    <tripinfo id="car_66" depart="99.00" departLane="200568455#0_0" departPos="5.10" departPosLat="0.00" departSpeed="0.00" departDelay="0.00" arrival="259.00" arrivalLane="430532795_1" arrivalPos="303.61" arrivalPosLat="0.00" arrivalSpeed="11.94" duration="160.00" routeLength="1633.58" waitingTime="8.00" waitingCount="2" stopTime="0.00" timeLoss="34.10" rerouteNo="0" devices="tripinfo_car_66" vType="car" speedFactor="0.94" vaporized=""/>
    <tripinfo id="car_84" depart="129.00" departLane="200568455#0_0" departPos="5.10" departPosLat="0.00" departSpeed="0.00" departDelay="3.00" arrival="261.00" arrivalLane="430532795_1" arrivalPos="303.61" arrivalPosLat="0.00" arrivalSpeed="12.90" duration="132.00" routeLength="1633.58" waitingTime="0.00" waitingCount="0" stopTime="0.00" timeLoss="13.71" rerouteNo="0" devices="tripinfo_car_84" vType="car" speedFactor="1.00" vaporized=""/>
    <tripinfo id="car_ev_49" depart="196.00" departLane="277203721_0" departPos="4.90" departPosLat="0.00" departSpeed="0.00" departDelay="0.00" arrival="263.00" arrivalLane="200568452#0_1" arrivalPos="720.04" arrivalPosLat="0.00" arrivalSpeed="14.92" duration="67.00" routeLength="924.26" waitingTime="0.00" waitingCount="0" stopTime="0.00" timeLoss="5.52" rerouteNo="0" devices="tripinfo_car_ev_49" vType="car_ev" speedFactor="1.10" vaporized=""/>